<?xml version="1.0" encoding="UTF-8"?>

<!-- generated on 10/09/18 11:27:47 by Eclipse SUMO GUI Version v0_32_0+1548-e77c7f77e4
<configuration xmlns:xsi="http://www.w3.org/2001/XMLSchema-instance" xsi:noNamespaceSchemaLocation="http://sumo.dlr.de/xsd/sumoConfiguration.xsd">

    <input>
        <net-file value="example.net.xml"/>
        <route-files value="filename.xml"/>
    </input>

    <output>
        <emission-output value="data_emission.xml"/>
        <tripinfo-output value="data_tripinfo.xml"/>
    </output>

    <time>
        <begin value="0"/>
        <end value="1000"/>
        <step-length value="1"/>
    </time>

    <processing>
        <step-method.ballistic value="true"/>
        <collision.action value="warn"/>
        <collision.mingap-factor value="0"/>
        <time-to-teleport value="-1"/>
    </processing>

    <traci_server>
        <remote-port value="8873"/>
    </traci_server>

    <random_number>
        <seed value="273608265"/>
    </random_number>

    <gui_only>
        <quit-on-end value="true"/>
        <start value="true"/>
        <tracker-interval value="1"/>
    </gui_only>

</configuration>
-->

<emission-export xmlns:xsi="http://www.w3.org/2001/XMLSchema-instance" xsi:noNamespaceSchemaLocation="http://sumo.dlr.de/xsd/emission_file.xsd">
    <timestep time="0.00">
        <vehicle id="rightlane7.0" eclass="HBEFA3/PC_G_EU4" CO2="2624.72" CO="164.78" HC="0.81" NOx="1.20" PMx="0.07" fuel="1.13" electricity="0.00" noise="55.94" route="route0" type="car" waiting="0.00" lane="gneE0_0" pos="5.10" speed="0.00" angle="90.00" x="-994.90" y="-4.80"/>
        <vehicle id="straight_opposite3.0" eclass="HBEFA3/PC_G_EU4" CO2="2624.72" CO="164.78" HC="0.81" NOx="1.20" PMx="0.07" fuel="1.13" electricity="0.00" noise="55.94" route="route5" type="car" waiting="0.00" lane="gneE7_1" pos="5.10" speed="0.00" angle="270.00" x="994.90" y="1.60"/>
    </timestep>
    <timestep time="1.00">
        <vehicle id="rightlane1.0" eclass="HBEFA3/PC_G_EU4" CO2="2624.72" CO="164.78" HC="0.81" NOx="1.20" PMx="0.07" fuel="1.13" electricity="0.00" noise="55.94" route="route0" type="car" waiting="0.00" lane="gneE0_0" pos="5.10" speed="0.00" angle="90.00" x="-994.90" y="-4.80"/>
        <vehicle id="rightlane7.0" eclass="HBEFA3/PC_G_EU4" CO2="4102.54" CO="152.07" HC="0.79" NOx="1.83" PMx="0.09" fuel="1.76" electricity="0.00" noise="68.38" route="route0" type="car" waiting="0.00" lane="gneE0_1" pos="6.40" speed="2.60" angle="90.00" x="-993.60" y="-1.60"/>
        <vehicle id="straight_opposite3.0" eclass="HBEFA3/PC_G_EU4" CO2="4102.54" CO="152.07" HC="0.79" NOx="1.83" PMx="0.09" fuel="1.76" electricity="0.00" noise="68.38" route="route5" type="car" waiting="0.00" lane="gneE7_1" pos="6.40" speed="2.60" angle="270.00" x="993.60" y="1.60"/>
    </timestep>
    <timestep time="2.00">
        <vehicle id="rightlane1.0" eclass="HBEFA3/PC_G_EU4" CO2="4102.54" CO="152.07" HC="0.79" NOx="1.83" PMx="0.09" fuel="1.76" electricity="0.00" noise="68.38" route="route0" type="car" waiting="0.00" lane="gneE0_0" pos="6.40" speed="2.60" angle="90.00" x="-993.60" y="-4.80"/>
        <vehicle id="rightlane7.0" eclass="HBEFA3/PC_G_EU4" CO2="2457.57" CO="115.37" HC="0.58" NOx="1.05" PMx="0.05" fuel="1.06" electricity="0.00" noise="57.91" route="route0" type="car" waiting="0.00" lane="gneE0_1" pos="9.09" speed="2.78" angle="90.00" x="-990.91" y="-1.60"/>
        <vehicle id="straight_opposite3.0" eclass="HBEFA3/PC_G_EU4" CO2="5686.50" CO="147.20" HC="0.81" NOx="2.51" PMx="0.12" fuel="2.44" electricity="0.00" noise="69.46" route="route5" type="car" waiting="0.00" lane="gneE7_1" pos="10.30" speed="5.20" angle="270.00" x="989.70" y="1.60"/>
    </timestep>
    <timestep time="3.00">
        <vehicle id="left_opposite3.0" eclass="HBEFA3/PC_G_EU4" CO2="2624.72" CO="164.78" HC="0.81" NOx="1.20" PMx="0.07" fuel="1.13" electricity="0.00" noise="55.94" route="route3" type="car" waiting="0.00" lane="gneE7_1" pos="5.10" speed="0.00" angle="270.00" x="994.90" y="1.60"/>
        <vehicle id="rightlane1.0" eclass="HBEFA3/PC_G_EU4" CO2="2460.86" CO="115.37" HC="0.58" NOx="1.05" PMx="0.05" fuel="1.06" electricity="0.00" noise="57.93" route="route0" type="car" waiting="0.00" lane="gneE0_0" pos="9.09" speed="2.79" angle="90.00" x="-990.91" y="-4.80"/>
        <vehicle id="rightlane7.0" eclass="HBEFA3/PC_G_EU4" CO2="2450.84" CO="112.43" HC="0.57" NOx="1.04" PMx="0.05" fuel="1.05" electricity="0.00" noise="58.00" route="route0" type="car" waiting="0.00" lane="gneE0_1" pos="11.97" speed="2.97" angle="90.00" x="-988.03" y="-1.60"/>
        <vehicle id="straight_opposite3.0" eclass="HBEFA3/PC_G_EU4" CO2="7376.59" CO="150.16" HC="0.86" NOx="3.24" PMx="0.16" fuel="3.17" electricity="0.00" noise="70.61" route="route5" type="car" waiting="0.00" lane="gneE7_1" pos="16.80" speed="7.80" angle="270.00" x="983.20" y="1.60"/>
    </timestep>
    <timestep time="4.00">
        <vehicle id="left1.0" eclass="HBEFA3/PC_G_EU4" CO2="2624.72" CO="164.78" HC="0.81" NOx="1.20" PMx="0.07" fuel="1.13" electricity="0.00" noise="55.94" route="route1" type="car" waiting="0.00" lane="gneE0_1" pos="5.10" speed="0.00" angle="90.00" x="-994.90" y="-1.60"/>
        <vehicle id="left_opposite3.0" eclass="HBEFA3/PC_G_EU4" CO2="4102.54" CO="152.07" HC="0.79" NOx="1.83" PMx="0.09" fuel="1.76" electricity="0.00" noise="68.38" route="route3" type="car" waiting="0.00" lane="gneE7_1" pos="6.40" speed="2.60" angle="270.00" x="993.60" y="1.60"/>
        <vehicle id="rightlane1.0" eclass="HBEFA3/PC_G_EU4" CO2="2454.21" CO="112.35" HC="0.57" NOx="1.04" PMx="0.05" fuel="1.06" electricity="0.00" noise="58.02" route="route0" type="car" waiting="0.00" lane="gneE0_0" pos="11.98" speed="2.98" angle="90.00" x="-988.02" y="-4.80"/>
        <vehicle id="rightlane7.0" eclass="HBEFA3/PC_G_EU4" CO2="2444.64" CO="109.53" HC="0.55" NOx="1.03" PMx="0.05" fuel="1.05" electricity="0.00" noise="58.09" route="route0" type="car" waiting="0.00" lane="gneE0_1" pos="15.03" speed="3.15" angle="90.00" x="-984.97" y="-1.60"/>
        <vehicle id="straight_opposite3.0" eclass="HBEFA3/PC_G_EU4" CO2="9172.80" CO="160.95" HC="0.95" NOx="4.02" PMx="0.20" fuel="3.94" electricity="0.00" noise="71.82" route="route5" type="car" waiting="0.00" lane="gneE7_1" pos="25.90" speed="10.40" angle="270.00" x="974.10" y="1.60"/>
    </timestep>
    <timestep time="5.00">
        <vehicle id="left1.0" eclass="HBEFA3/PC_G_EU4" CO2="4102.54" CO="152.07" HC="0.79" NOx="1.83" PMx="0.09" fuel="1.76" electricity="0.00" noise="68.38" route="route1" type="car" waiting="0.00" lane="gneE0_1" pos="6.40" speed="2.60" angle="90.00" x="-993.60" y="-1.60"/>
        <vehicle id="left_opposite3.0" eclass="HBEFA3/PC_G_EU4" CO2="5686.50" CO="147.20" HC="0.81" NOx="2.51" PMx="0.12" fuel="2.44" electricity="0.00" noise="69.46" route="route3" type="car" waiting="0.00" lane="gneE7_1" pos="10.30" speed="5.20" angle="270.00" x="989.70" y="1.60"/>
        <vehicle id="rightlane1.0" eclass="HBEFA3/PC_G_EU4" CO2="2448.12" CO="109.38" HC="0.55" NOx="1.03" PMx="0.05" fuel="1.05" electricity="0.00" noise="58.12" route="route0" type="car" waiting="0.00" lane="gneE0_0" pos="15.05" speed="3.17" angle="90.00" x="-984.95" y="-4.80"/>
        <vehicle id="rightlane7.0" eclass="HBEFA3/PC_G_EU4" CO2="2438.97" CO="106.66" HC="0.54" NOx="1.03" PMx="0.04" fuel="1.05" electricity="0.00" noise="58.18" route="route0" type="car" waiting="0.00" lane="gneE0_1" pos="18.27" speed="3.33" angle="90.00" x="-981.73" y="-1.60"/>
        <vehicle id="straight_opposite3.0" eclass="HBEFA3/PC_G_EU4" CO2="11075.16" CO="179.58" HC="1.09" NOx="4.85" PMx="0.24" fuel="4.76" electricity="0.00" noise="73.06" route="route5" type="car" waiting="0.00" lane="gneE7_1" pos="37.60" speed="13.00" angle="270.00" x="962.40" y="1.60"/>
    </timestep>
    <timestep time="6.00">
        <vehicle id="left1.0" eclass="HBEFA3/PC_G_EU4" CO2="2471.53" CO="115.35" HC="0.58" NOx="1.06" PMx="0.05" fuel="1.06" electricity="0.00" noise="58.01" route="route1" type="car" waiting="0.00" lane="gneE0_1" pos="9.10" speed="2.80" angle="90.00" x="-990.90" y="-1.60"/>
        <vehicle id="left_opposite3.0" eclass="HBEFA3/PC_G_EU4" CO2="7376.59" CO="150.16" HC="0.86" NOx="3.24" PMx="0.16" fuel="3.17" electricity="0.00" noise="70.61" route="route3" type="car" waiting="0.00" lane="gneE7_1" pos="16.80" speed="7.80" angle="270.00" x="983.20" y="1.60"/>
        <vehicle id="rightlane1.0" eclass="HBEFA3/PC_G_EU4" CO2="2442.59" CO="106.45" HC="0.54" NOx="1.03" PMx="0.04" fuel="1.05" electricity="0.00" noise="58.21" route="route0" type="car" waiting="0.00" lane="gneE0_0" pos="18.31" speed="3.35" angle="90.00" x="-981.69" y="-4.80"/>
        <vehicle id="rightlane7.0" eclass="HBEFA3/PC_G_EU4" CO2="2433.84" CO="103.83" HC="0.53" NOx="1.02" PMx="0.04" fuel="1.05" electricity="0.00" noise="58.27" route="route0" type="car" waiting="0.00" lane="gneE0_1" pos="21.69" speed="3.52" angle="90.00" x="-978.31" y="-1.60"/>
        <vehicle id="straight_opposite3.0" eclass="HBEFA3/PC_G_EU4" CO2="5559.40" CO="60.29" HC="0.41" NOx="2.22" PMx="0.10" fuel="2.39" electricity="0.00" noise="67.05" route="route5" type="car" waiting="0.00" lane="gneE7_0" pos="51.05" speed="13.89" angle="270.00" x="948.96" y="4.80"/>
    </timestep>
    <timestep time="7.00">
        <vehicle id="left1.0" eclass="HBEFA3/PC_G_EU4" CO2="2465.23" CO="112.11" HC="0.57" NOx="1.05" PMx="0.05" fuel="1.06" electricity="0.00" noise="58.10" route="route1" type="car" waiting="0.00" lane="gneE0_1" pos="12.01" speed="3.01" angle="90.00" x="-987.99" y="-1.60"/>
        <vehicle id="left_opposite3.0" eclass="HBEFA3/PC_G_EU4" CO2="9172.80" CO="160.95" HC="0.95" NOx="4.02" PMx="0.20" fuel="3.94" electricity="0.00" noise="71.82" route="route3" type="car" waiting="0.00" lane="gneE7_1" pos="25.90" speed="10.40" angle="270.00" x="974.10" y="1.60"/>
        <vehicle id="rightlane1.0" eclass="HBEFA3/PC_G_EU4" CO2="2437.62" CO="103.56" HC="0.53" NOx="1.02" PMx="0.04" fuel="1.05" electricity="0.00" noise="58.31" route="route0" type="car" waiting="0.00" lane="gneE0_0" pos="21.75" speed="3.54" angle="90.00" x="-978.25" y="-4.80"/>
        <vehicle id="rightlane7.0" eclass="HBEFA3/PC_G_EU4" CO2="2429.23" CO="101.05" HC="0.51" NOx="1.01" PMx="0.04" fuel="1.04" electricity="0.00" noise="58.37" route="route0" type="car" waiting="0.00" lane="gneE0_1" pos="25.30" speed="3.70" angle="90.00" x="-974.70" y="-1.60"/>
        <vehicle id="rightlane8.0" eclass="HBEFA3/PC_G_EU4" CO2="2624.72" CO="164.78" HC="0.81" NOx="1.20" PMx="0.07" fuel="1.13" electricity="0.00" noise="55.94" route="route0" type="car" waiting="0.00" lane="gneE0_0" pos="5.10" speed="0.00" angle="90.00" x="-994.90" y="-4.80"/>
        <vehicle id="straight_opposite3.0" eclass="HBEFA3/PC_G_EU4" CO2="2337.01" CO="0.00" HC="0.02" NOx="0.70" PMx="0.01" fuel="1.00" electricity="0.00" noise="64.57" route="route5" type="car" waiting="0.00" lane="gneE7_0" pos="64.94" speed="13.89" angle="270.00" x="935.07" y="4.80"/>
    </timestep>
    <timestep time="8.00">
        <vehicle id="left1.0" eclass="HBEFA3/PC_G_EU4" CO2="2459.58" CO="108.93" HC="0.55" NOx="1.04" PMx="0.05" fuel="1.06" electricity="0.00" noise="58.20" route="route1" type="car" waiting="0.00" lane="gneE0_1" pos="15.12" speed="3.21" angle="90.00" x="-984.88" y="-1.60"/>
        <vehicle id="left_opposite3.0" eclass="HBEFA3/PC_G_EU4" CO2="11075.16" CO="179.58" HC="1.09" NOx="4.85" PMx="0.24" fuel="4.76" electricity="0.00" noise="73.06" route="route3" type="car" waiting="0.00" lane="gneE7_1" pos="37.60" speed="13.00" angle="270.00" x="962.40" y="1.60"/>
        <vehicle id="left_opposite3.1" eclass="HBEFA3/PC_G_EU4" CO2="2624.72" CO="164.78" HC="0.81" NOx="1.20" PMx="0.07" fuel="1.13" electricity="0.00" noise="55.94" route="route3" type="car" waiting="0.00" lane="gneE7_1" pos="5.10" speed="0.00" angle="270.00" x="994.90" y="1.60"/>
        <vehicle id="rightlane1.0" eclass="HBEFA3/PC_G_EU4" CO2="2433.20" CO="100.71" HC="0.51" NOx="1.01" PMx="0.04" fuel="1.05" electricity="0.00" noise="58.40" route="route0" type="car" waiting="0.00" lane="gneE0_0" pos="25.39" speed="3.73" angle="90.00" x="-974.61" y="-4.80"/>
        <vehicle id="rightlane7.0" eclass="HBEFA3/PC_G_EU4" CO2="2425.16" CO="98.30" HC="0.50" NOx="1.00" PMx="0.04" fuel="1.04" electricity="0.00" noise="58.46" route="route0" type="car" waiting="0.00" lane="gneE0_1" pos="29.10" speed="3.89" angle="90.00" x="-970.90" y="-1.60"/>
        <vehicle id="rightlane8.0" eclass="HBEFA3/PC_G_EU4" CO2="4102.54" CO="152.07" HC="0.79" NOx="1.83" PMx="0.09" fuel="1.76" electricity="0.00" noise="68.38" route="route0" type="car" waiting="0.00" lane="gneE0_0" pos="6.40" speed="2.60" angle="90.00" x="-993.60" y="-4.80"/>
        <vehicle id="straight3.0" eclass="HBEFA3/PC_G_EU4" CO2="2624.72" CO="164.78" HC="0.81" NOx="1.20" PMx="0.07" fuel="1.13" electricity="0.00" noise="55.94" route="route0" type="car" waiting="0.00" lane="gneE0_1" pos="5.10" speed="0.00" angle="90.00" x="-994.90" y="-1.60"/>
        <vehicle id="straight_opposite3.0" eclass="HBEFA3/PC_G_EU4" CO2="2337.01" CO="0.00" HC="0.02" NOx="0.70" PMx="0.01" fuel="1.00" electricity="0.00" noise="64.57" route="route5" type="car" waiting="0.00" lane="gneE7_0" pos="78.83" speed="13.89" angle="270.00" x="921.17" y="4.80"/>
    </timestep>
    <timestep time="9.00">
        <vehicle id="left1.0" eclass="HBEFA3/PC_G_EU4" CO2="2454.59" CO="105.78" HC="0.54" NOx="1.03" PMx="0.04" fuel="1.06" electricity="0.00" noise="58.31" route="route1" type="car" waiting="0.00" lane="gneE0_1" pos="18.43" speed="3.42" angle="90.00" x="-981.57" y="-1.60"/>
        <vehicle id="left_opposite3.0" eclass="HBEFA3/PC_G_EU4" CO2="5559.40" CO="60.29" HC="0.41" NOx="2.22" PMx="0.10" fuel="2.39" electricity="0.00" noise="67.05" route="route3" type="car" waiting="0.00" lane="gneE7_0" pos="51.05" speed="13.89" angle="270.00" x="948.96" y="4.80"/>
        <vehicle id="left_opposite3.1" eclass="HBEFA3/PC_G_EU4" CO2="4102.54" CO="152.07" HC="0.79" NOx="1.83" PMx="0.09" fuel="1.76" electricity="0.00" noise="68.38" route="route3" type="car" waiting="0.00" lane="gneE7_1" pos="6.40" speed="2.60" angle="270.00" x="993.60" y="1.60"/>
        <vehicle id="rightlane1.0" eclass="HBEFA3/PC_G_EU4" CO2="2429.35" CO="97.90" HC="0.50" NOx="1.01" PMx="0.04" fuel="1.04" electricity="0.00" noise="58.50" route="route0" type="car" waiting="0.00" lane="gneE0_0" pos="29.22" speed="3.92" angle="90.00" x="-970.78" y="-4.80"/>
        <vehicle id="rightlane7.0" eclass="HBEFA3/PC_G_EU4" CO2="2421.62" CO="95.59" HC="0.49" NOx="1.00" PMx="0.04" fuel="1.04" electricity="0.00" noise="58.56" route="route0" type="car" waiting="0.00" lane="gneE0_1" pos="33.08" speed="4.07" angle="90.00" x="-966.92" y="-1.60"/>
        <vehicle id="rightlane8.0" eclass="HBEFA3/PC_G_EU4" CO2="2483.58" CO="115.34" HC="0.58" NOx="1.06" PMx="0.05" fuel="1.07" electricity="0.00" noise="58.09" route="route0" type="car" waiting="0.00" lane="gneE0_0" pos="9.11" speed="2.82" angle="90.00" x="-990.89" y="-4.80"/>
        <vehicle id="straight3.0" eclass="HBEFA3/PC_G_EU4" CO2="4102.54" CO="152.07" HC="0.79" NOx="1.83" PMx="0.09" fuel="1.76" electricity="0.00" noise="68.38" route="route0" type="car" waiting="0.00" lane="gneE0_1" pos="6.40" speed="2.60" angle="90.00" x="-993.60" y="-1.60"/>
        <vehicle id="straight_opposite3.0" eclass="HBEFA3/PC_G_EU4" CO2="2337.01" CO="0.00" HC="0.02" NOx="0.70" PMx="0.01" fuel="1.00" electricity="0.00" noise="64.57" route="route5" type="car" waiting="0.00" lane="gneE7_0" pos="92.72" speed="13.89" angle="270.00" x="907.28" y="4.80"/>
    </timestep>
    <timestep time="10.00">
        <vehicle id="left1.0" eclass="HBEFA3/PC_G_EU4" CO2="2450.26" CO="102.69" HC="0.52" NOx="1.02" PMx="0.04" fuel="1.05" electricity="0.00" noise="58.41" route="route1" type="car" waiting="0.00" lane="gneE0_1" pos="21.95" speed="3.62" angle="90.00" x="-978.05" y="-1.60"/>
        <vehicle id="left_opposite3.0" eclass="HBEFA3/PC_G_EU4" CO2="2337.01" CO="0.00" HC="0.02" NOx="0.70" PMx="0.01" fuel="1.00" electricity="0.00" noise="64.57" route="route3" type="car" waiting="0.00" lane="gneE7_0" pos="64.94" speed="13.89" angle="270.00" x="935.07" y="4.80"/>
        <vehicle id="left_opposite3.1" eclass="HBEFA3/PC_G_EU4" CO2="5686.50" CO="147.20" HC="0.81" NOx="2.51" PMx="0.12" fuel="2.44" electricity="0.00" noise="69.46" route="route3" type="car" waiting="0.00" lane="gneE7_1" pos="10.30" speed="5.20" angle="270.00" x="989.70" y="1.60"/>
        <vehicle id="rightlane1.0" eclass="HBEFA3/PC_G_EU4" CO2="2426.06" CO="95.13" HC="0.49" NOx="1.00" PMx="0.04" fuel="1.04" electricity="0.00" noise="58.60" route="route0" type="car" waiting="0.00" lane="gneE0_0" pos="33.23" speed="4.11" angle="90.00" x="-966.77" y="-4.80"/>
        <vehicle id="rightlane7.0" eclass="HBEFA3/PC_G_EU4" CO2="2418.61" CO="92.92" HC="0.48" NOx="0.99" PMx="0.04" fuel="1.04" electricity="0.00" noise="58.66" route="route0" type="car" waiting="0.00" lane="gneE0_1" pos="37.24" speed="4.25" angle="90.00" x="-962.76" y="-1.60"/>
        <vehicle id="rightlane8.0" eclass="HBEFA3/PC_G_EU4" CO2="2477.82" CO="111.85" HC="0.57" NOx="1.05" PMx="0.05" fuel="1.07" electricity="0.00" noise="58.19" route="route0" type="car" waiting="0.00" lane="gneE0_0" pos="12.04" speed="3.04" angle="90.00" x="-987.96" y="-4.80"/>
        <vehicle id="straight3.0" eclass="HBEFA3/PC_G_EU4" CO2="2487.94" CO="115.33" HC="0.58" NOx="1.06" PMx="0.05" fuel="1.07" electricity="0.00" noise="58.12" route="route0" type="car" waiting="0.00" lane="gneE0_1" pos="9.11" speed="2.83" angle="90.00" x="-990.89" y="-1.60"/>
        <vehicle id="straight_opposite3.0" eclass="HBEFA3/PC_G_EU4" CO2="2337.01" CO="0.00" HC="0.02" NOx="0.70" PMx="0.01" fuel="1.00" electricity="0.00" noise="64.57" route="route5" type="car" waiting="0.00" lane="gneE7_0" pos="106.61" speed="13.89" angle="270.00" x="893.39" y="4.80"/>
    </timestep>
    <timestep time="11.00">
        <vehicle id="left1.0" eclass="HBEFA3/PC_G_EU4" CO2="2446.58" CO="99.65" HC="0.51" NOx="1.02" PMx="0.04" fuel="1.05" electricity="0.00" noise="58.52" route="route1" type="car" waiting="0.00" lane="gneE0_1" pos="25.67" speed="3.82" angle="90.00" x="-974.33" y="-1.60"/>
        <vehicle id="left_opposite3.0" eclass="HBEFA3/PC_G_EU4" CO2="2337.01" CO="0.00" HC="0.02" NOx="0.70" PMx="0.01" fuel="1.00" electricity="0.00" noise="64.57" route="route3" type="car" waiting="0.00" lane="gneE7_0" pos="78.83" speed="13.89" angle="270.00" x="921.17" y="4.80"/>
        <vehicle id="left_opposite3.1" eclass="HBEFA3/PC_G_EU4" CO2="7376.59" CO="150.16" HC="0.86" NOx="3.24" PMx="0.16" fuel="3.17" electricity="0.00" noise="70.61" route="route3" type="car" waiting="0.00" lane="gneE7_1" pos="16.80" speed="7.80" angle="270.00" x="983.20" y="1.60"/>
        <vehicle id="rightlane1.0" eclass="HBEFA3/PC_G_EU4" CO2="2423.33" CO="92.41" HC="0.48" NOx="0.99" PMx="0.04" fuel="1.04" electricity="0.00" noise="58.70" route="route0" type="car" waiting="0.00" lane="gneE0_0" pos="37.43" speed="4.30" angle="90.00" x="-962.57" y="-4.80"/>
        <vehicle id="rightlane7.0" eclass="HBEFA3/PC_G_EU4" CO2="2416.14" CO="90.28" HC="0.47" NOx="0.98" PMx="0.04" fuel="1.04" electricity="0.00" noise="58.76" route="route0" type="car" waiting="0.00" lane="gneE0_1" pos="41.58" speed="4.44" angle="90.00" x="-958.42" y="-1.60"/>
        <vehicle id="rightlane8.0" eclass="HBEFA3/PC_G_EU4" CO2="2472.84" CO="108.43" HC="0.55" NOx="1.04" PMx="0.05" fuel="1.06" electricity="0.00" noise="58.30" route="route0" type="car" waiting="0.00" lane="gneE0_0" pos="15.19" speed="3.26" angle="90.00" x="-984.81" y="-4.80"/>
        <vehicle id="rightlane9.0" eclass="HBEFA3/PC_G_EU4" CO2="2624.72" CO="164.78" HC="0.81" NOx="1.20" PMx="0.07" fuel="1.13" electricity="0.00" noise="55.94" route="route0" type="car" waiting="0.00" lane="gneE0_0" pos="5.10" speed="0.00" angle="90.00" x="-994.90" y="-4.80"/>
        <vehicle id="straight3.0" eclass="HBEFA3/PC_G_EU4" CO2="2482.42" CO="111.76" HC="0.57" NOx="1.05" PMx="0.05" fuel="1.07" electricity="0.00" noise="58.23" route="route0" type="car" waiting="0.00" lane="gneE0_1" pos="12.05" speed="3.05" angle="90.00" x="-987.95" y="-1.60"/>
        <vehicle id="straight_opposite10.0" eclass="HBEFA3/PC_G_EU4" CO2="2624.72" CO="164.78" HC="0.81" NOx="1.20" PMx="0.07" fuel="1.13" electricity="0.00" noise="55.94" route="route5" type="car" waiting="0.00" lane="gneE7_1" pos="5.10" speed="0.00" angle="270.00" x="994.90" y="1.60"/>
        <vehicle id="straight_opposite3.0" eclass="HBEFA3/PC_G_EU4" CO2="2337.01" CO="0.00" HC="0.02" NOx="0.70" PMx="0.01" fuel="1.00" electricity="0.00" noise="64.57" route="route5" type="car" waiting="0.00" lane="gneE7_0" pos="120.50" speed="13.89" angle="270.00" x="879.51" y="4.80"/>
    </timestep>
    <timestep time="12.00">
        <vehicle id="left1.0" eclass="HBEFA3/PC_G_EU4" CO2="2443.55" CO="96.65" HC="0.50" NOx="1.01" PMx="0.04" fuel="1.05" electricity="0.00" noise="58.62" route="route1" type="car" waiting="0.00" lane="gneE0_1" pos="29.59" speed="4.03" angle="90.00" x="-970.41" y="-1.60"/>
        <vehicle id="left_opposite3.0" eclass="HBEFA3/PC_G_EU4" CO2="2337.01" CO="0.00" HC="0.02" NOx="0.70" PMx="0.01" fuel="1.00" electricity="0.00" noise="64.57" route="route3" type="car" waiting="0.00" lane="gneE7_0" pos="92.72" speed="13.89" angle="270.00" x="907.28" y="4.80"/>
        <vehicle id="left_opposite3.1" eclass="HBEFA3/PC_G_EU4" CO2="9172.80" CO="160.95" HC="0.95" NOx="4.02" PMx="0.20" fuel="3.94" electricity="0.00" noise="71.82" route="route3" type="car" waiting="0.00" lane="gneE7_1" pos="25.90" speed="10.40" angle="270.00" x="974.10" y="1.60"/>
        <vehicle id="rightlane1.0" eclass="HBEFA3/PC_G_EU4" CO2="2421.17" CO="89.72" HC="0.46" NOx="0.99" PMx="0.04" fuel="1.04" electricity="0.00" noise="58.81" route="route0" type="car" waiting="0.00" lane="gneE0_0" pos="41.82" speed="4.48" angle="90.00" x="-958.18" y="-4.80"/>
        <vehicle id="rightlane7.0" eclass="HBEFA3/PC_G_EU4" CO2="2414.20" CO="87.69" HC="0.45" NOx="0.98" PMx="0.04" fuel="1.04" electricity="0.00" noise="58.86" route="route0" type="car" waiting="0.00" lane="gneE0_1" pos="46.11" speed="4.62" angle="90.00" x="-953.89" y="-1.60"/>
        <vehicle id="rightlane8.0" eclass="HBEFA3/PC_G_EU4" CO2="2468.63" CO="105.06" HC="0.53" NOx="1.04" PMx="0.04" fuel="1.06" electricity="0.00" noise="58.41" route="route0" type="car" waiting="0.00" lane="gneE0_0" pos="18.57" speed="3.48" angle="90.00" x="-981.43" y="-4.80"/>
        <vehicle id="rightlane9.0" eclass="HBEFA3/PC_G_EU4" CO2="4102.54" CO="152.07" HC="0.79" NOx="1.83" PMx="0.09" fuel="1.76" electricity="0.00" noise="68.38" route="route0" type="car" waiting="0.00" lane="gneE0_0" pos="6.40" speed="2.60" angle="90.00" x="-993.60" y="-4.80"/>
        <vehicle id="straight3.0" eclass="HBEFA3/PC_G_EU4" CO2="2477.72" CO="108.25" HC="0.55" NOx="1.05" PMx="0.05" fuel="1.07" electricity="0.00" noise="58.34" route="route0" type="car" waiting="0.00" lane="gneE0_1" pos="15.22" speed="3.28" angle="90.00" x="-984.78" y="-1.60"/>
        <vehicle id="straight3.1" eclass="HBEFA3/PC_G_EU4" CO2="2624.72" CO="164.78" HC="0.81" NOx="1.20" PMx="0.07" fuel="1.13" electricity="0.00" noise="55.94" route="route0" type="car" waiting="0.00" lane="gneE0_1" pos="5.10" speed="0.00" angle="90.00" x="-994.90" y="-1.60"/>
        <vehicle id="straight_opposite10.0" eclass="HBEFA3/PC_G_EU4" CO2="4102.54" CO="152.07" HC="0.79" NOx="1.83" PMx="0.09" fuel="1.76" electricity="0.00" noise="68.38" route="route5" type="car" waiting="0.00" lane="gneE7_1" pos="6.40" speed="2.60" angle="270.00" x="993.60" y="1.60"/>
        <vehicle id="straight_opposite3.0" eclass="HBEFA3/PC_G_EU4" CO2="2337.01" CO="0.00" HC="0.02" NOx="0.70" PMx="0.01" fuel="1.00" electricity="0.00" noise="64.57" route="route5" type="car" waiting="0.00" lane="gneE7_0" pos="134.38" speed="13.89" angle="270.00" x="865.62" y="4.80"/>
    </timestep>
    <timestep time="13.00">
        <vehicle id="left1.0" eclass="HBEFA3/PC_G_EU4" CO2="2441.19" CO="93.70" HC="0.48" NOx="1.00" PMx="0.04" fuel="1.05" electricity="0.00" noise="58.73" route="route1" type="car" waiting="0.00" lane="gneE0_1" pos="33.72" speed="4.23" angle="90.00" x="-966.28" y="-1.60"/>
        <vehicle id="left_opposite3.0" eclass="HBEFA3/PC_G_EU4" CO2="2337.01" CO="0.00" HC="0.02" NOx="0.70" PMx="0.01" fuel="1.00" electricity="0.00" noise="64.57" route="route3" type="car" waiting="0.00" lane="gneE7_0" pos="106.61" speed="13.89" angle="270.00" x="893.39" y="4.80"/>
        <vehicle id="left_opposite3.1" eclass="HBEFA3/PC_G_EU4" CO2="11075.16" CO="179.58" HC="1.09" NOx="4.85" PMx="0.24" fuel="4.76" electricity="0.00" noise="73.06" route="route3" type="car" waiting="0.00" lane="gneE7_1" pos="37.60" speed="13.00" angle="270.00" x="962.40" y="1.60"/>
        <vehicle id="rightlane1.0" eclass="HBEFA3/PC_G_EU4" CO2="2419.56" CO="87.08" HC="0.45" NOx="0.98" PMx="0.04" fuel="1.04" electricity="0.00" noise="58.91" route="route0" type="car" waiting="0.00" lane="gneE0_0" pos="46.40" speed="4.67" angle="90.00" x="-953.60" y="-4.80"/>
        <vehicle id="rightlane7.0" eclass="HBEFA3/PC_G_EU4" CO2="2412.79" CO="85.14" HC="0.44" NOx="0.97" PMx="0.04" fuel="1.04" electricity="0.00" noise="58.97" route="route0" type="car" waiting="0.00" lane="gneE0_1" pos="50.82" speed="4.80" angle="90.00" x="-949.18" y="-1.60"/>
        <vehicle id="rightlane8.0" eclass="HBEFA3/PC_G_EU4" CO2="2465.19" CO="101.75" HC="0.52" NOx="1.03" PMx="0.04" fuel="1.06" electricity="0.00" noise="58.53" route="route0" type="car" waiting="0.00" lane="gneE0_0" pos="22.16" speed="3.70" angle="90.00" x="-977.84" y="-4.80"/>
        <vehicle id="rightlane9.0" eclass="HBEFA3/PC_G_EU4" CO2="2502.20" CO="115.32" HC="0.58" NOx="1.07" PMx="0.05" fuel="1.08" electricity="0.00" noise="58.21" route="route0" type="car" waiting="0.00" lane="gneE0_0" pos="9.12" speed="2.85" angle="90.00" x="-990.88" y="-4.80"/>
        <vehicle id="straight3.0" eclass="HBEFA3/PC_G_EU4" CO2="2473.83" CO="104.80" HC="0.53" NOx="1.04" PMx="0.04" fuel="1.06" electricity="0.00" noise="58.45" route="route0" type="car" waiting="0.00" lane="gneE0_1" pos="18.62" speed="3.51" angle="90.00" x="-981.38" y="-1.60"/>
        <vehicle id="straight3.1" eclass="HBEFA3/PC_G_EU4" CO2="4102.54" CO="152.07" HC="0.79" NOx="1.83" PMx="0.09" fuel="1.76" electricity="0.00" noise="68.38" route="route0" type="car" waiting="0.00" lane="gneE0_1" pos="6.40" speed="2.60" angle="90.00" x="-993.60" y="-1.60"/>
        <vehicle id="straight_opposite10.0" eclass="HBEFA3/PC_G_EU4" CO2="5686.50" CO="147.20" HC="0.81" NOx="2.51" PMx="0.12" fuel="2.44" electricity="0.00" noise="69.46" route="route5" type="car" waiting="0.00" lane="gneE7_1" pos="10.30" speed="5.20" angle="270.00" x="989.70" y="1.60"/>
        <vehicle id="straight_opposite3.0" eclass="HBEFA3/PC_G_EU4" CO2="2337.01" CO="0.00" HC="0.02" NOx="0.70" PMx="0.01" fuel="1.00" electricity="0.00" noise="64.57" route="route5" type="car" waiting="0.00" lane="gneE7_0" pos="148.27" speed="13.89" angle="270.00" x="851.73" y="4.80"/>
    </timestep>
    <timestep time="14.00">
        <vehicle id="left1.0" eclass="HBEFA3/PC_G_EU4" CO2="2439.48" CO="90.80" HC="0.47" NOx="1.00" PMx="0.04" fuel="1.05" electricity="0.00" noise="58.84" route="route1" type="car" waiting="0.00" lane="gneE0_1" pos="38.05" speed="4.43" angle="90.00" x="-961.95" y="-1.60"/>
        <vehicle id="left_opposite3.0" eclass="HBEFA3/PC_G_EU4" CO2="2337.01" CO="0.00" HC="0.02" NOx="0.70" PMx="0.01" fuel="1.00" electricity="0.00" noise="64.57" route="route3" type="car" waiting="0.00" lane="gneE7_0" pos="120.50" speed="13.89" angle="270.00" x="879.51" y="4.80"/>
        <vehicle id="left_opposite3.1" eclass="HBEFA3/PC_G_EU4" CO2="5559.40" CO="60.29" HC="0.41" NOx="2.22" PMx="0.10" fuel="2.39" electricity="0.00" noise="67.05" route="route3" type="car" waiting="0.00" lane="gneE7_0" pos="51.05" speed="13.89" angle="270.00" x="948.96" y="4.80"/>
        <vehicle id="rightlane1.0" eclass="HBEFA3/PC_G_EU4" CO2="2418.52" CO="84.47" HC="0.44" NOx="0.97" PMx="0.04" fuel="1.04" electricity="0.00" noise="59.02" route="route0" type="car" waiting="0.00" lane="gneE0_0" pos="51.17" speed="4.86" angle="90.00" x="-948.83" y="-4.80"/>
        <vehicle id="rightlane7.0" eclass="HBEFA3/PC_G_EU4" CO2="2411.92" CO="82.62" HC="0.43" NOx="0.97" PMx="0.04" fuel="1.04" electricity="0.00" noise="59.07" route="route0" type="car" waiting="0.00" lane="gneE0_1" pos="55.72" speed="4.99" angle="90.00" x="-944.28" y="-1.60"/>
        <vehicle id="rightlane8.0" eclass="HBEFA3/PC_G_EU4" CO2="2462.52" CO="98.49" HC="0.50" NOx="1.02" PMx="0.04" fuel="1.06" electricity="0.00" noise="58.64" route="route0" type="car" waiting="0.00" lane="gneE0_0" pos="25.98" speed="3.93" angle="90.00" x="-974.02" y="-4.80"/>
        <vehicle id="rightlane9.0" eclass="HBEFA3/PC_G_EU4" CO2="2497.61" CO="111.47" HC="0.56" NOx="1.06" PMx="0.05" fuel="1.07" electricity="0.00" noise="58.33" route="route0" type="car" waiting="0.00" lane="gneE0_0" pos="12.09" speed="3.09" angle="90.00" x="-987.91" y="-4.80"/>
        <vehicle id="rightlane_opposite2.0" eclass="HBEFA3/PC_G_EU4" CO2="2624.72" CO="164.78" HC="0.81" NOx="1.20" PMx="0.07" fuel="1.13" electricity="0.00" noise="55.94" route="route5" type="car" waiting="0.00" lane="gneE7_0" pos="5.10" speed="0.00" angle="270.00" x="994.90" y="4.80"/>
        <vehicle id="straight3.0" eclass="HBEFA3/PC_G_EU4" CO2="2470.76" CO="101.41" HC="0.52" NOx="1.03" PMx="0.04" fuel="1.06" electricity="0.00" noise="58.57" route="route0" type="car" waiting="0.00" lane="gneE0_1" pos="22.24" speed="3.74" angle="90.00" x="-977.76" y="-1.60"/>
        <vehicle id="straight3.1" eclass="HBEFA3/PC_G_EU4" CO2="2507.39" CO="115.32" HC="0.58" NOx="1.07" PMx="0.05" fuel="1.08" electricity="0.00" noise="58.25" route="route0" type="car" waiting="0.00" lane="gneE0_1" pos="9.13" speed="2.85" angle="90.00" x="-990.87" y="-1.60"/>