<?xml version="1.0" encoding="UTF-8"?>

<!-- generated on 10/09/18 11:27:47 by Eclipse SUMO GUI Version v0_32_0+1548-e77c7f77e4
<configuration xmlns:xsi="http://www.w3.org/2001/XMLSchema-instance" xsi:noNamespaceSchemaLocation="http://sumo.dlr.de/xsd/sumoConfiguration.xsd">

    <input>
        <net-file value="example.net.xml"/>
        <route-files value="filename.xml"/>
    </input>

    <output>
        <emission-output value="data_emission.xml"/>
        <tripinfo-output value="data_tripinfo.xml"/>
    </output>

    <time>
        <begin value="0"/>
        <end value="1000"/>
        <step-length value="1"/>
    </time>

    <processing>
        <step-method.ballistic value="true"/>
        <collision.action value="warn"/>
        <collision.mingap-factor value="0"/>
        <time-to-teleport value="-1"/>
    </processing>

    <traci_server>
        <remote-port value="8873"/>
    </traci_server>

    <random_number>
        <seed value="273608265"/>
    </random_number>

    <gui_only>
        <quit-on-end value="true"/>
        <start value="true"/>
        <tracker-interval value="1"/>
    </gui_only>

</configuration>
-->

<tripinfos xmlns:xsi="http://www.w3.org/2001/XMLSchema-instance" xsi:noNamespaceSchemaLocation="http://sumo.dlr.de/xsd/tripinfo_file.xsd">
</tripinfos>
