<?xml version="1.0" encoding="UTF-8"?>

<!-- generated on 09/21/18 08:39:54 by Eclipse SUMO GUI Version v0_32_0+1548-e77c7f77e4
<configuration xmlns:xsi="http://www.w3.org/2001/XMLSchema-instance" xsi:noNamespaceSchemaLocation="http://sumo.dlr.de/xsd/sumoConfiguration.xsd">

    <input>
        <net-file value="example.net.xml"/>
        <route-files value="filename.xml"/>
    </input>

    <output>
        <emission-output value="emission.xml"/>
        <tripinfo-output value="tripinfo.xml"/>
    </output>

    <time>
        <begin value="0"/>
        <end value="1000"/>
        <step-length value="1"/>
    </time>

    <processing>
        <step-method.ballistic value="true"/>
        <collision.action value="warn"/>
        <collision.mingap-factor value="0"/>
        <time-to-teleport value="-1"/>
    </processing>

    <traci_server>
        <remote-port value="8873"/>
    </traci_server>

    <random_number>
        <seed value="427329533"/>
    </random_number>

    <gui_only>
        <tracker-interval value="1"/>
    </gui_only>

</configuration>
-->

<emission-export xmlns:xsi="http://www.w3.org/2001/XMLSchema-instance" xsi:noNamespaceSchemaLocation="http://sumo.dlr.de/xsd/emission_file.xsd">
</emission-export>
